# vtk DataFile Version 2.0
Exported by getfem++
ASCII
DATASET UNSTRUCTURED_GRID
POINTS 111 float 
0.01 0 0
0 0.01 0
-0.01 0 0
0 -0.01 0
0.01 0 0.1
0 0.01 0.1
-0.01 0 0.1
0 -0.01 0.1
0.0070710678118791 0.0070710678118518 0
-0.0070710678118518 0.0070710678118791 0
-0.0070710678118791 -0.0070710678118518 0
0.0070710678118518 -0.0070710678118791 0
0.0070710678118791 0.0070710678118518 0.1
-0.0070710678118518 0.0070710678118791 0.1
-0.0070710678118791 -0.0070710678118518 0.1
0.0070710678118518 -0.0070710678118791 0.1
0.01 0 0.0099999999999825
0.01 0 0.019999999999956
0.01 0 0.029999999999927
0.01 0 0.039999999999896
0.01 0 0.049999999999868
0.01 0 0.059999999999894
0.01 0 0.06999999999992
0.01 0 0.079999999999947
0.01 0 0.089999999999973
0 0.01 0.0099999999999825
0 0.01 0.019999999999956
0 0.01 0.029999999999927
0 0.01 0.039999999999896
0 0.01 0.049999999999868
0 0.01 0.059999999999894
0 0.01 0.06999999999992
0 0.01 0.079999999999947
0 0.01 0.089999999999973
-0.01 0 0.0099999999999825
-0.01 0 0.019999999999956
-0.01 0 0.029999999999927
-0.01 0 0.039999999999896
-0.01 0 0.049999999999868
-0.01 0 0.059999999999894
-0.01 0 0.06999999999992
-0.01 0 0.079999999999947
-0.01 0 0.089999999999973
0 -0.01 0.0099999999999825
0 -0.01 0.019999999999956
0 -0.01 0.029999999999927
0 -0.01 0.039999999999896
0 -0.01 0.049999999999868
0 -0.01 0.059999999999894
0 -0.01 0.06999999999992
0 -0.01 0.079999999999947
0 -0.01 0.089999999999973
-5.6445344256846e-20 0 0
0.0042147150031494 -0.0023531779273141 0
0.0023054808308095 0.0041975800350103 0
-0.0042004770889768 0.0023044400771568 0
-0.0024648112665038 -0.0039047453794225 0
0.0070710678118655 0.0070710678118655 0.029999999999927
0.0070710678118655 0.0070710678118655 0.036666666666574
0.0063909360017352 0.007691289685204 0.02193491285398
0.0079936862743554 0.0060084090862043 0.013544389978185
0.0070711624856646 0.0070709731367988 0.059791800258897
0.0070710678118655 0.0070710678118655 0.049583333333223
0.0070804911671153 0.007061631881683 0.085360484112289
0.0070839116828087 0.0070582005688537 0.094243425282906
0.0070718251667641 0.0070703103758408 0.068751068738584
0.0071477789733429 0.0069935152640312 0.005787037037026
0.0070740021101213 0.0070681322954511 0.075212474695601
-0.0070710678118655 0.0070710678118655 0.029999999999927
-0.0070710678118655 0.0070710678118655 0.036666666666574
-0.007691289685204 0.0063909360017352 0.02193491285398
-0.0060084090862043 0.0079936862743554 0.013544389978185
-0.0070709731367988 0.0070711624856646 0.059791800258897
-0.0070710678118655 0.0070710678118655 0.049583333333223
-0.007061631881683 0.0070804911671153 0.085360484112289
-0.0070582005688537 0.0070839116828087 0.094243425282906
-0.0070703103758408 0.0070718251667641 0.068751068738584
-0.0069935152640312 0.0071477789733429 0.005787037037026
-0.0070681322954511 0.0070740021101213 0.075212474695601
-0.0070710678118655 -0.0070710678118655 0.029999999999927
-0.0070710678118655 -0.0070710678118655 0.036666666666574
-0.0063909360017352 -0.007691289685204 0.02193491285398
-0.0079936862743554 -0.0060084090862043 0.013544389978185
-0.0070711624856646 -0.0070709731367988 0.059791800258897
-0.0070710678118655 -0.0070710678118655 0.049583333333223
-0.0070804911671153 -0.007061631881683 0.085360484112289
-0.0070839116828087 -0.0070582005688537 0.094243425282906
-0.0070718251667641 -0.0070703103758408 0.068751068738584
-0.0071477789733429 -0.0069935152640312 0.005787037037026
-0.0070740021101213 -0.0070681322954511 0.075212474695601
0.0070710678118655 -0.0070710678118655 0.029999999999927
0.0070710678118655 -0.0070710678118655 0.036666666666574
0.007691289685204 -0.0063909360017352 0.02193491285398
0.0060084090862043 -0.0079936862743554 0.013544389978185
0.0070709731367988 -0.0070711624856646 0.059791800258897
0.0070710678118655 -0.0070710678118655 0.049583333333223
0.007061631881683 -0.0070804911671153 0.085360484112289
0.0070582005688537 -0.0070839116828087 0.094243425282906
0.0070703103758408 -0.0070718251667641 0.068751068738584
0.0069935152640312 -0.0071477789733429 0.005787037037026
0.0070681322954511 -0.0070740021101213 0.075212474695601
0 0 0.1
0.0042147150031494 -0.0023531779273141 0.1
0.0023054808308095 0.0041975800350103 0.1
-0.0042004770889768 0.0023044400771568 0.1
-0.0024648112665038 -0.0039047453794225 0.1
0 0 0.09
1.7347234759768e-18 0 0.025967456426953
0.0015389814845082 0.0015389814845082 0.064271434485023
0 1.7347234759768e-18 0.015731152007293
0 0 0.077606237347774

CELLS 269 1345
4 56 88 52 55
4 52 56 53 99
4 66 52 54 53
4 52 55 77 54
4 73 37 28 46
4 62 28 19 46
4 88 56 52 43
4 19 62 46 95
4 73 84 37 46
4 73 28 62 46
4 66 52 25 54
4 34 52 55 77
4 16 52 53 99
4 38 47 29 108
4 29 47 20 108
4 62 73 46 95
4 73 84 46 95
4 34 52 77 109
4 52 66 25 109
4 88 43 52 109
4 52 99 16 109
4 34 88 52 109
4 52 16 66 109
4 52 25 77 109
4 52 43 99 109
4 48 47 83 108
4 38 39 83 108
4 84 47 38 108
4 20 47 95 108
4 38 29 73 108
4 29 20 62 108
4 73 84 38 37
4 84 47 46 95
4 73 28 29 62
4 20 62 19 95
4 48 94 47 108
4 72 39 38 108
4 56 52 43 99
4 52 77 25 54
4 88 34 52 55
4 16 52 66 53
4 37 69 28 46
4 28 58 19 46
4 84 38 83 108
4 84 83 47 108
4 21 20 94 108
4 72 29 30 108
4 80 69 91 107
4 69 58 91 107
4 80 69 37 46
4 28 69 58 46
4 58 19 46 91
4 94 95 47 108
4 38 73 72 108
4 29 62 20 47
4 38 73 29 47
4 69 58 46 91
4 80 69 46 91
4 21 61 20 108
4 61 30 29 108
4 73 29 72 108
4 20 95 94 108
4 84 73 38 47
4 29 73 62 47
4 62 20 47 95
4 73 62 47 95
4 84 73 47 95
4 61 62 20 108
4 61 29 62 108
4 105 101 102 106
4 102 101 103 106
4 104 103 101 106
4 104 101 105 106
4 91 90 45 107
4 90 91 18 107
4 36 68 69 107
4 68 27 69 107
4 36 80 79 107
4 79 80 45 107
4 57 58 27 107
4 57 18 58 107
4 23 96 106 110
4 74 106 41 110
4 85 106 50 110
4 63 106 32 110
4 32 106 74 110
4 50 106 96 110
4 41 106 85 110
4 23 106 63 110
4 69 27 58 107
4 91 45 80 107
4 91 58 18 107
4 80 36 69 107
4 49 108 87 110
4 87 108 40 110
4 97 105 102 106
4 74 42 41 106
4 85 51 50 106
4 23 96 24 106
4 32 63 33 106
4 23 24 63 106
4 74 32 33 106
4 42 85 41 106
4 51 96 50 106
4 86 104 105 106
4 105 97 51 106
4 102 103 64 106
4 75 103 104 106
4 76 40 108 110
4 98 108 49 110
4 102 64 24 106
4 75 33 103 106
4 42 104 86 106
4 98 22 108 110
4 76 108 31 110
4 82 88 34 109
4 71 77 25 109
4 66 16 60 109
4 43 93 99 109
4 86 105 51 106
4 71 34 77 109
4 82 43 88 109
4 16 99 93 109
4 66 60 25 109
4 97 7 105 51
4 97 102 24 106
4 103 33 64 106
4 98 49 100 110
4 76 31 78 110
4 65 22 67 110
4 89 87 40 110
4 76 78 40 110
4 89 49 87 110
4 98 100 22 110
4 65 67 31 110
4 75 104 42 106
4 65 31 108 110
4 65 108 22 110
4 102 4 24 64
4 75 103 33 5
4 42 104 6 86
4 23 100 96 110
4 32 67 63 110
4 78 74 41 110
4 85 50 89 110
4 78 32 74 110
4 50 96 100 110
4 41 85 89 110
4 23 63 67 110
4 7 97 105 102
4 40 87 83 108
4 83 87 49 108
4 53 56 3 99
4 36 80 69 37
4 80 46 45 91
4 69 27 28 58
4 58 18 19 91
4 104 6 86 105
4 88 56 2 55
4 49 48 83 108
4 83 39 40 108
4 98 94 49 108
4 72 76 40 108
4 7 86 105 51
4 4 102 103 64
4 84 80 37 46
4 69 73 37 28
4 28 58 62 19
4 46 19 95 91
4 75 104 103 5
4 66 54 0 53
4 77 55 1 54
4 4 97 102 24
4 103 33 5 64
4 104 75 42 6
4 85 86 51 106
4 97 24 96 106
4 74 75 42 106
4 33 63 64 106
4 85 42 86 106
4 51 97 96 106
4 24 64 63 106
4 74 33 75 106
4 3 56 43 99
4 89 50 49 110
4 41 40 78 110
4 32 31 67 110
4 23 22 100 110
4 78 31 32 110
4 41 89 40 110
4 50 100 49 110
4 23 67 22 110
4 40 39 72 108
4 94 48 49 108
4 82 44 43 109
4 16 93 17 109
4 35 34 71 109
4 26 25 60 109
4 16 66 0 53
4 25 77 1 54
4 88 2 34 55
4 35 107 81 109
4 44 107 92 109
4 26 107 70 109
4 59 17 107 109
4 75 13 104 5
4 12 4 103 64
4 15 97 7 102
4 77 55 9 1
4 8 66 54 0
4 3 53 99 11
4 70 107 35 109
4 81 107 44 109
4 59 107 26 109
4 17 92 107 109
4 6 14 86 105
4 44 93 43 109
4 71 25 26 109
4 60 16 17 109
4 35 82 34 109
4 76 72 31 108
4 94 98 22 108
4 56 10 88 2
4 17 93 92 109
4 71 70 35 109
4 59 26 60 109
4 81 44 82 109
4 81 36 79 107
4 68 70 27 107
4 57 59 18 107
4 90 92 45 107
4 44 92 93 109
4 35 81 82 109
4 59 60 17 109
4 71 26 70 109
4 56 88 3 43
4 22 21 94 108
4 31 72 30 108
4 70 26 27 107
4 59 17 18 107
4 35 36 81 107
4 44 45 92 107
4 61 22 65 108
4 61 65 31 108
4 0 16 53 99
4 66 25 1 54
4 2 34 55 77
4 36 70 68 107
4 27 59 57 107
4 81 79 45 107
4 18 92 90 107
4 44 81 45 107
4 26 59 27 107
4 17 92 18 107
4 35 70 36 107
4 10 56 88 3
4 14 7 86 105
4 31 30 61 108
4 61 21 22 108
4 53 0 99 11
4 8 66 1 54
4 55 2 77 9
4 97 15 4 102
4 12 103 5 64
4 13 75 104 6
4 35 71 34 70
4 26 59 60 25
4 16 17 93 92
4 81 82 44 43

CELL_TYPES 269
10
10
10
10
10
10
10
10
10
10
10
10
10
10
10
10
10
10
10
10
10
10
10
10
10
10
10
10
10
10
10
10
10
10
10
10
10
10
10
10
10
10
10
10
10
10
10
10
10
10
10
10
10
10
10
10
10
10
10
10
10
10
10
10
10
10
10
10
10
10
10
10
10
10
10
10
10
10
10
10
10
10
10
10
10
10
10
10
10
10
10
10
10
10
10
10
10
10
10
10
10
10
10
10
10
10
10
10
10
10
10
10
10
10
10
10
10
10
10
10
10
10
10
10
10
10
10
10
10
10
10
10
10
10
10
10
10
10
10
10
10
10
10
10
10
10
10
10
10
10
10
10
10
10
10
10
10
10
10
10
10
10
10
10
10
10
10
10
10
10
10
10
10
10
10
10
10
10
10
10
10
10
10
10
10
10
10
10
10
10
10
10
10
10
10
10
10
10
10
10
10
10
10
10
10
10
10
10
10
10
10
10
10
10
10
10
10
10
10
10
10
10
10
10
10
10
10
10
10
10
10
10
10
10
10
10
10
10
10
10
10
10
10
10
10
10
10
10
10
10
10
10
10
10
10
10
10
10
10
10
10
10
10
10
10
10
10
10
10

CELL_DATA 269
SCALARS dataset float 1
LOOKUP_TABLE default
1
1
1
1
1
1
1
1
1
1
1
1
1
1
1
1
1
1
1
1
1
1
1
1
1
1
1
1
1
1
1
1
1
1
1
1
1
1
1
1
1
1
1
1
1
1
1
1
1
1
1
1
1
1
1
1
1
1
1
1
1
1
1
1
1
1
1
1
1
1
1
1
1
1
1
1
1
1
1
1
1
1
1
1
1
1
1
1
1
1
1
1
1
1
1
1
1
1
1
1
1
1
1
1
1
1
1
1
1
1
1
1
1
1
1
1
1
1
1
1
1
1
1
1
1
1
1
1
1
1
1
1
1
1
1
1
1
1
1
1
1
1
1
1
1
1
1
1
1
1
1
1
1
1
1
1
1
1
1
1
1
1
1
1
1
1
1
1
1
1
1
1
1
1
1
1
1
1
1
1
1
1
1
1
1
1
1
1
1
1
1
1
1
1
1
1
1
1
1
1
1
1
1
1
1
1
1
1
1
1
1
1
1
1
1
1
1
1
1
1
1
1
1
1
1
1
1
1
1
1
1
1
1
1
1
1
1
1
1
1
1
1
1
1
1
1
1
1
1
1
1
1
1
1
1
1
1
1
1
1
1
1
1
1
1
1
1
1
1
